
Host: gr043.hpc.nyu.edu

Timers On : Tue Nov 15 14:35:39 2022
Timers Off: Tue Nov 15 14:35:39 2022

Wall Time:        0.36 seconds

                                                       Time (seconds)
Module                                       User      System        Wall        Calls

--------------------------------------------------------------------------------------

**************************************************************************************
